ITEM: TIMESTEP
20000
ITEM: NUMBER OF ATOMS
540
ITEM: BOX BOUNDS pp pp pp
0.0000000000000000e+00 1.6116146579999999e+01
0.0000000000000000e+00 1.6388389470000000e+01
0.0000000000000000e+00 2.2909078860000001e+01
ITEM: ATOMS id type x y z
264 1 0.867602 6.42868 2.0045
270 3 5.05483 2.02029 1.49773
276 3 1.47015 6.39313 3.91402
277 3 5.11914 1.98425 6.93143
280 3 5.7086 0.00492352 5.41133
323 1 3.77543 3.91287 6.7418
327 2 0.678203 4.25712 5.35463
329 3 1.17089 5.02328 3.48812
332 3 2.41353 5.77942 1.04125
334 3 0.505644 3.61166 5.59766
337 3 2.63915 4.82897 5.51608
445 2 5.99697 0.696693 5.44253
449 3 5.75826 1.13293 6.06659
451 3 6.45172 2.09694 4.96657
458 3 5.42297 1.34016 4.87283
502 1 5.76555 3.64617 2.84387
514 3 5.40317 2.65146 4.45122
160 3 0.506422 5.59762 4.44103
453 3 6.626 0.842325 5.16579
456 3 5.41864 2.31474 5.68568
507 2 5.67819 2.25449 4.91992
512 3 7.23064 3.18915 1.80574
325 2 1.13213 5.24406 4.13075
330 3 4.35314 4.66603 2.68996
338 3 0.871713 4.38377 4.63895
504 1 4.32932 6.22922 1.15211
466 2 5.20202 1.74119 6.33514
528 2 7.17842 1.60348 4.90862
526 2 1.99032 5.16951 5.56746
539 3 1.39648 4.6171 5.7629
322 1 3.9146 5.95436 3.96871
212 3 4.14173 7.56207 2.43491
324 1 2.9156 4.22575 1.81425
336 3 1.71295 5.31162 4.73963
348 2 0.151086 5.7672 5.21213
355 3 0.731245 5.93564 5.72861
211 3 4.49692 0.400549 5.03685
288 2 4.41529 1.16334 5.08521
295 3 4.55022 1.40394 5.86189
509 3 1.91363 5.76618 6.09059
207 2 1.40915 6.75647 4.49276
214 3 1.93334 6.67861 5.1241
37 3 0.663711 6.85466 4.9283
340 3 1.63302 6.88016 6.31874
205 2 2.31511 6.8985 5.81589
213 3 3.984 1.46943 4.74954
218 3 2.98641 6.80643 5.99407
505 2 1.05798 6.32466 6.3893
518 3 0.866455 6.08994 7.02169
384 1 2.30186 2.48173 3.8917
271 3 0.0881872 4.89874 5.43963
272 3 2.01361 2.46031 2.02167
333 3 1.58777 7.59909 4.42964
243 1 6.00196 0.82589 2.45752
262 1 3.58716 1.76159 0.520476
378 3 7.31517 0.839497 0.140817
444 1 6.42787 2.94022 0.400467
365 2 7.7401 0.363753 0.521494
535 3 7.34757 1.61181 4.186
40 3 2.21442 7.80236 5.60637
235 3 0.897116 8.04214 5.45831
197 3 7.46889 0.118065 1.12477
479 3 7.62718 1.64224 5.44441
181 1 0.801955 1.49529 1.02893
239 3 0.325964 7.01951 6.18356
226 2 0.204523 7.39763 5.55757
228 2 1.62834 8.19046 5.16528
369 3 8.54761 0.739534 0.716737
84 1 8.55223 2.25864 2.29191
209 3 15.7788 7.68638 5.35727
273 3 15.6761 6.05514 5.26751
261 1 15.35 4.1391 2.76562
269 3 14.3626 2.7483 2.49845
278 3 14.7354 7.45546 1.18229
81 1 14.1691 6.78569 4.08597
82 1 13.6979 2.76744 0.5645
83 1 13.0799 1.70315 3.64846
86 2 11.9684 0.569799 1.31888
96 3 14.9183 6.34714 0.601352
98 3 9.91995 0.365877 0.897853
99 3 12.1038 0.97668 0.767595
143 1 11.8094 7.42916 6.31826
147 2 14.3944 5.77468 1.0233
148 2 13.9416 7.22419 1.41057
152 3 13.9379 6.45197 1.50249
154 3 14.7707 5.43911 1.54175
155 3 13.7275 7.65888 2.00049
450 3 11.1163 0.483615 1.46683
73 3 13.6479 7.46183 0.714506
91 3 13.067 6.43551 5.54574
321 1 14.3857 5.86263 6.76088
437 3 12.3449 0.648343 1.96193
31 3 12.379 0.588077 4.82463
149 3 10.3999 7.5823 7.54322
386 2 9.28966 0.779867 0.352176
89 3 9.61698 0.330137 6.98611
265 2 15.2123 7.10716 0.487049
100 3 15.9078 7.17846 0.495099
85 2 10.4518 0.00254879 1.32381
279 3 13.9967 5.42459 0.562383
443 1 11.2178 0.022247 6.2143
399 3 9.4696 1.47457 0.253256
267 2 4.8915 15.9799 5.09579
274 3 5.08345 15.7225 4.46089
326 2 0.0729024 8.36009 0.164653
216 3 4.59162 15.6728 5.66042
202 1 2.89471 8.70322 3.0176
442 1 6.53683 14.2223 4.70726
201 1 2.63559 8.92161 7.42521
220 3 7.7404 12.7923 7.02544
331 3 1.76382 8.84236 4.952
385 2 7.02304 12.5712 7.27405
389 3 6.54548 13.0827 6.89131
27 2 0.990254 9.17514 1.27676
156 3 1.09297 8.94159 1.98385
34 3 1.47683 9.46428 0.873185
339 3 0.569149 8.50945 0.80822
396 3 7.42294 14.0823 6.95942
210 3 8.04359 14.2289 3.67743
406 2 6.72615 13.9398 7.4396
419 3 6.24154 14.3636 7.49795
398 3 6.90008 12.0014 7.57502
282 1 4.58508 15.736 7.49198
200 3 8.0517 16.1414 0.0116777
32 3 0.247245 9.72998 1.21769
35 3 0.0105004 9.39463 0.0050269
137 3 15.3961 8.38262 0.530938
460 3 10.1987 16.0822 1.9274
447 2 8.143 13.5884 6.72917
454 3 8.17843 13.5626 6.05214
497 3 14.1051 8.58179 2.89907
146 2 13.8306 8.56442 2.24728
510 3 14.415 8.71356 1.59216
159 3 13.2281 8.94324 2.05185
145 2 14.7773 8.74732 0.919109
373 3 12.0892 16.0629 1.01467
142 1 16.0246 9.09124 3.63226
24 1 8.72642 15.9771 5.24392
28 2 15.8658 9.92162 0.581332
455 3 10.8817 15.8189 0.802805
448 2 11.6374 15.5074 0.654225
382 1 8.69506 14.8215 2.07574
520 3 15.1104 9.55385 0.822338
394 3 11.1457 13.4659 0.937522
395 3 12.2133 12.7725 2.32887
21 1 11.5388 15.7084 3.64053
23 1 15.2555 9.95368 6.28047
25 2 11.4687 12.9673 2.56123
26 2 11.6281 14.0349 1.38282
29 3 10.2665 15.2041 4.8624
38 3 11.1662 12.9115 3.15686
39 3 11.6317 14.729 1.17795
144 1 13.8461 10.8203 3.35788
151 3 14.9313 10.2946 4.54798
383 1 9.51713 13.2788 4.51903
387 2 11.063 12.6119 1.00696
388 2 12.5908 12.7664 1.46998
390 3 11.4416 13.7911 2.12887
392 3 11.9443 12.4317 1.05724
400 3 11.0298 12.6124 1.85218
516 3 10.7183 12.2677 0.601736
377 3 12.3343 13.602 1.30699
493 3 13.201 12.521 1.42824
22 1 15.1316 12.3037 0.224126
121 1 12.3223 9.82999 0.461333
391 3 8.67152 13.7659 7.20786
176 3 12.6165 9.19873 7.61186
158 3 14.1777 8.54844 0.338381
452 3 11.8411 15.2873 0.0189429
133 3 15.8549 10.6135 0.42682
342 1 0.917758 4.18071 7.87029
524 1 3.08599 6.36282 8.12252
287 2 5.42807 1.35742 14.0857
291 3 1.58309 5.53499 13.1398
293 3 1.15465 6.72532 13.1162
294 3 5.02859 1.76561 14.504
343 1 3.55037 2.74393 12.6824
347 2 2.544 6.69071 12.0332
352 3 0.819477 4.56627 9.53665
354 3 2.15569 6.41568 13.8783
357 3 2.37021 5.86285 12.1495
464 1 4.58602 1.22215 10.3736
469 3 6.32285 1.51371 14.1442
478 3 6.39258 1.04093 12.5516
522 1 2.47351 4.0481 10.0834
529 3 2.9268 5.6424 13.265
534 3 6.00598 2.16593 12.0454
104 1 7.42348 3.69096 12.05
180 3 1.85961 7.05394 12.1493
476 3 6.80174 2.11737 13.1251
527 2 6.11049 1.78967 12.6351
532 3 3.49052 2.57363 10.8272
231 3 5.17658 0.65723 13.8449
236 3 5.57443 1.74259 13.2352
345 2 1.1039 7.31318 12.4853
350 3 3.10187 4.49306 8.37056
308 2 1.35618 6.18547 13.6285
315 3 0.965866 5.98274 14.185
426 2 7.06494 1.69717 13.8639
439 3 7.54429 1.09829 13.5343
486 2 2.29697 5.26293 12.7455
499 3 2.35513 4.59589 12.6142
525 2 2.96627 6.44069 13.5872
360 3 2.88442 6.83754 12.853
538 3 3.47284 6.66059 14.0231
349 3 0.518929 7.08686 12.0677
358 3 1.15856 7.98973 12.7001
473 3 6.44729 0.415896 13.709
296 3 2.94292 6.83181 11.4823
233 3 4.25617 0.15725 12.9172
248 2 4.91495 0.0701769 13.2074
465 2 6.36884 0.228474 12.8906
379 3 5.90138 0.587597 14.9418
366 2 6.28323 0.159183 14.5158
297 3 7.45989 2.16009 14.3111
232 3 3.22199 8.08015 8.79446
300 3 5.55744 0.216236 12.6787
471 3 7.23041 0.194745 12.6799
488 2 7.83841 0.436404 13.1587
230 3 7.95071 0.0969432 9.39477
222 1 0.210101 7.93757 8.28408
284 1 15.9911 5.61631 10.8279
517 3 8.51597 3.23903 9.6297
462 1 8.25439 1.01125 10.8775
441 1 8.30849 1.69724 7.67188
495 3 8.455 0.553833 12.7953
472 3 9.43695 4.08923 12.268
281 1 15.4402 4.66072 13.6178
141 1 10.7794 6.41198 8.74712
97 3 14.6744 7.38203 10.2919
457 3 10.2028 2.23877 11.0753
393 3 10.6003 4.59561 12.2083
286 2 14.26 7.84092 9.97865
289 3 14.559 5.09675 12.0657
299 3 13.4557 7.90554 10.2312
475 3 9.92541 4.62264 11.1423
101 1 14.2035 7.01374 12.3007
102 1 12.2943 1.80666 9.58449
103 1 13.0514 3.8694 11.4077
105 2 9.79986 4.82898 10.3691
106 2 10.1963 2.94082 10.8852
109 3 10.5234 2.34975 14.584
118 3 9.74604 5.5018 10.2446
119 3 10.2894 3.47395 11.5128
461 1 10.3441 4.20269 14.4063
468 2 10.0754 4.22919 11.8843
470 3 9.21793 4.30423 10.0467
480 3 10.4318 4.45837 9.91953
51 3 13.2549 2.15566 10.9618
166 2 9.10778 3.5016 9.84078
179 3 9.46771 3.14281 10.5148
530 3 9.85198 3.4681 9.37198
44 1 10.5178 1.29971 12.9861
41 1 13.1059 0.738233 11.8443
540 3 10.7279 3.23829 10.2781
165 2 10.6531 3.7709 9.57038
178 3 11.1386 3.78155 9.12377
49 3 12.2418 0.620585 13.3434
523 1 10.9205 6.68366 11.9806
174 3 12.1515 7.65959 10.44
93 3 14.0555 7.58108 9.13569
113 3 12.8435 4.76815 14.8079
167 2 12.6254 7.96222 9.98903
168 2 13.4062 7.52063 8.62029
175 3 13.4305 6.97815 8.20051
244 1 15.1566 8.0969 14.9394
172 3 12.7581 7.57123 9.22308
258 3 13.3619 5.94709 14.7766
463 1 12.3306 1.95531 14.9113
135 3 12.1448 5.74225 14.2609
128 2 12.5932 5.57508 14.7349
111 3 10.7276 8.09461 12.9177
163 1 11.1904 8.14037 14.6505
117 3 13.5209 3.71758 15.0938
70 3 14.029 4.96007 15.2667
416 3 7.05923 16.3154 14.7445
474 3 7.86236 16.2704 13.7519
344 1 3.2989 8.55553 10.4645
255 3 5.02659 15.7124 13.4026
409 3 5.94742 15.8144 14.2572
217 3 6.93875 13.4231 7.94825
290 3 4.92115 15.972 9.4597
50 3 1.13988 9.41365 8.18324
404 1 4.58026 14.5085 11.4198
263 1 6.54791 15.4454 9.85885
292 3 5.96202 13.7466 10.566
221 1 4.00226 14.0593 14.3089
224 1 5.57179 12.3305 9.7384
225 2 2.08705 11.4941 11.2593
227 2 2.76249 10.811 12.5102
229 3 2.32249 12.1861 11.6822
234 3 2.15559 10.8969 11.938
237 3 5.95212 14.5765 13.5317
238 3 1.54168 11.3901 10.8884
341 1 2.18309 8.94562 14.2008
351 3 3.40156 10.7772 11.9023
353 3 4.18601 11.1273 10.8696
356 3 2.75851 10.385 13.007
405 2 6.10659 15.2543 13.6209
418 3 6.32204 15.709 13.0376
57 3 2.8611 11.6176 12.6474
60 3 2.85251 11.3189 10.8881
186 2 2.97287 12.3519 12.2477
188 2 3.66589 11.272 11.2699
195 3 3.59567 12.0229 11.7035
199 3 3.07617 12.9042 12.5848
240 3 7.052 15.2226 13.9933
402 1 7.65221 14.067 12.18
42 1 0.380049 10.7216 9.31843
467 2 7.55422 15.7445 14.3545
182 1 0.34732 12.0173 13.9325
503 1 10.1416 9.44934 7.7912
54 3 13.3237 8.27317 8.24585
411 3 8.11457 15.4361 14.6879
170 3 14.6938 10.5225 8.16192
162 1 15.7851 9.45502 12.2384
110 3 14.5179 8.60148 9.90433
192 3 15.4123 10.8921 13.1761
285 2 14.3959 9.41741 9.86019
116 3 12.5571 8.71305 9.87721
120 3 14.7821 9.82047 10.3039
511 3 10.2393 11.1834 8.1287
298 3 13.5633 9.48984 9.92263
157 3 14.5424 9.64786 9.09544
203 1 9.11547 12.3363 8.60538
501 1 12.0144 11.7071 8.62943
114 3 11.7011 15.5717 8.81947
359 3 13.8208 9.54655 8.01431
33 3 12.5146 14.3807 10.9665
153 3 12.3417 9.97904 9.94607
381 1 9.33395 15.3261 8.41248
397 3 11.4745 14.0261 10.2992
513 3 11.6675 12.7258 10.4545
107 2 11.8931 15.6271 9.45161
108 2 12.4526 14.2543 10.0688
112 3 12.329 14.888 9.72991
115 3 12.7598 13.6955 9.83659
169 3 12.297 10.894 12.5823
346 2 14.2068 10.1425 8.51277
414 3 10.2561 14.5574 10.6411
415 3 11.7039 13.5787 11.4767
531 3 11.4102 13.9382 14.6766
43 1 13.7783 10.1957 13.6109
45 2 12.0849 14.3351 11.6397
46 2 10.9676 14.8478 10.5674
47 2 13.0995 9.0868 8.08979
48 2 12.7804 9.5084 9.63443
52 3 12.8561 9.35162 8.8314
55 3 13.6179 10.4658 8.90385
56 3 12.1254 16.1906 9.77177
58 3 12.3217 14.5153 12.2264
59 3 11.1593 15.3187 10.0616
161 1 11.2212 9.61721 11.9275
164 1 13.1633 11.5716 11.0712
171 3 14.2537 8.48534 13.3346
403 1 12.3361 15.3498 14.1443
407 2 9.76606 13.7435 10.7046
408 2 11.3482 13.2818 10.7804
410 3 11.3861 14.8061 11.2424
412 3 10.5496 13.3321 10.8511
420 3 9.32536 13.7346 11.2523
521 1 11.7205 12.2642 13.6209
536 3 9.52968 13.6281 10.0534
139 3 11.822 9.81574 15.1814
223 1 9.74063 14.6092 15.1678
424 1 6.1513 3.28173 15.5517
446 2 3.65976 3.48601 21.9852
459 3 4.11869 2.81026 21.7242
515 3 4.73397 1.86597 20.9939
508 2 4.5692 2.54944 21.0245
506 2 4.85176 4.63544 21.9931
519 3 4.23976 4.05599 22.1426
250 3 4.59099 0.437863 17.9961
251 3 0.561783 6.52939 19.2371
257 3 3.20006 3.34513 22.4768
260 3 3.09885 3.60548 19.9399
303 1 1.78048 6.19318 22.4283
317 3 4.9305 5.05665 22.5508
422 1 6.3424 0.476752 21.2046
425 2 3.62731 3.68956 20.3638
429 3 3.43073 3.76236 21.1768
431 3 5.38895 4.23873 20.4789
438 3 4.12152 4.27527 20.2222
482 1 2.70369 5.51894 18.7088
489 3 5.51614 4.16846 21.7147
494 3 4.83849 5.2597 19.9449
64 1 6.33294 5.15868 18.0267
433 3 4.10621 2.95781 20.433
436 3 4.61879 4.92856 21.2237
487 2 4.76855 4.79144 20.3761
492 3 5.32566 4.72882 16.3427
310 3 2.90314 6.06442 17.0353
318 3 0.248997 5.15454 19.2557
364 1 3.43703 0.899992 19.428
484 1 4.0235 5.7059 15.6474
320 3 6.42382 3.53811 20.9797
485 2 5.7385 3.73954 21.0595
498 3 5.20282 3.09707 21.1159
268 2 1.72343 0.856458 21.51
193 3 2.30789 0.805169 21.129
314 3 0.885875 5.90878 20.3502
302 1 1.31993 6.62008 16.2219
335 3 0.47629 6.95807 17.9987
254 3 1.05296 1.57785 21.0747
275 3 1.71736 0.889661 22.2252
283 1 6.30856 0.902459 17.8978
328 2 0.0627798 6.83524 18.5698
190 3 7.16118 0.788278 19.7056
63 1 0.854513 3.41192 20.3544
432 3 7.65948 2.60856 17.5757
247 2 0.431472 1.06497 20.8954
196 3 0.221993 0.991096 20.2747
191 3 0.999622 0.432929 21.2439
307 2 0.42957 5.99181 19.8569
150 3 0.193209 8.1006 22.4704
421 1 8.05452 2.4264 20.2947
79 3 7.95296 4.0278 17.009
132 3 12.4481 5.67802 15.6025
95 3 15.9687 1.16958 21.4899
90 3 14.6587 7.42716 22.7643
80 3 14.5485 6.29012 15.3394
245 2 14.0198 5.88857 15.3813
246 2 13.4193 4.36964 15.3169
266 2 13.9447 7.84299 22.8201
256 3 15.7568 5.90537 19.8419
428 2 8.14497 3.08609 17.5531
435 3 8.42127 3.46586 18.1864
78 3 8.38023 4.75447 18.5837
253 3 15.7653 7.33707 18.8309
305 2 15.5994 5.42166 19.0107
309 3 15.0648 5.00267 18.9445
140 3 15.7783 6.03505 18.5315
94 3 15.4234 2.39514 21.4959
77 3 13.5178 7.89821 22.2977
11 3 14.6974 2.54595 20.3963
87 2 14.6061 2.46075 21.0604
88 2 15.3902 1.59542 21.8731
423 1 13.2421 5.63498 21.1663
13 3 15.447 1.52538 22.5768
36 3 14.1617 2.86831 21.4935
92 3 14.6569 1.58606 21.4803
241 1 13.7051 3.57526 18.6078
477 3 8.94094 4.38447 16.2057
413 3 8.73158 3.13414 17.0229
249 3 12.1627 3.96797 19.2323
259 3 13.1096 4.66668 16.0657
61 1 11.3726 5.50777 18.7619
62 1 10.9246 2.48576 18.9016
65 2 8.90081 4.31267 18.3688
66 2 8.72052 4.17662 16.7889
69 3 9.96492 1.70497 20.1197
71 3 12.2997 6.66885 20.0107
76 3 13.589 5.88051 16.0855
122 1 13.6808 7.6619 18.2656
127 2 12.8467 5.49558 16.3375
134 3 12.5708 5.61371 16.9479
430 3 9.01758 4.39986 17.4851
440 3 9.50549 4.13873 18.6859
4 1 11.0664 1.2789 21.7563
401 1 9.02767 1.6054 15.2853
19 3 12.4496 1.36259 17.9732
6 2 12.391 0.788111 17.6512
417 3 11.7469 0.719108 17.078
533 3 11.3309 0.123987 15.9784
362 1 8.92727 0.206806 19.4626
75 3 13.0327 0.507231 17.1719
123 1 15.3444 8.12482 20.7011
53 3 13.087 0.0525245 15.9565
376 3 9.27802 0.28983 22.679
368 2 11.4297 0.0864744 16.6133
370 3 12.2669 0.0417342 18.0603
242 1 4.23069 16.2631 16.0986
10 3 0.655142 12.7969 15.6861
312 3 0.864578 8.54424 15.6183
252 3 3.38145 14.5467 15.8681
301 1 1.87372 10.4261 22.1463
208 2 1.56587 11.8606 20.2536
215 3 0.689749 12.0898 20.4719
184 1 2.05257 13.488 16.67
185 2 1.14842 12.7655 18.9821
187 2 0.665584 11.214 19.1471
194 3 0.970154 11.9863 18.6899
198 3 1.33772 13.2887 18.5652
311 3 1.25869 11.2647 19.7018
313 3 2.03133 11.7034 20.7011
316 3 0.551911 10.6793 18.7883
20 3 1.60428 12.4464 19.6653
304 1 0.464908 9.29839 17.3134
189 3 0.427967 12.8637 19.476
204 1 0.0840507 14.5796 21.3134
17 3 0.0138659 11.6242 19.5432
206 2 0.0437183 12.3414 20.0517
30 3 15.4655 13.983 22.7412
68 2 13.1087 16.2739 16.5901
434 3 8.48781 16.2945 21.6889
1 1 14.6014 16.3724 19.5073
371 3 8.96817 15.339 22.3447
537 3 11.3815 10.9321 15.6172
361 1 14.0396 15.1659 22.6828
427 2 8.67863 16.012 22.3049
173 3 13.5973 11.674 15.4424
219 3 15.6057 12.5427 20.372
67 2 13.6644 15.0203 17.4765
74 3 14.0937 15.1617 17.9923
16 3 13.6549 14.4345 17.0501
130 3 14.5078 9.61169 16.6456
483 1 12.3725 8.46139 20.7057
177 3 13.1754 9.6529 16.7378
72 3 13.4818 15.7325 16.9982
129 3 11.7591 10.0823 21.5105
500 3 12.2155 9.23265 17.4934
183 1 10.3955 14.3633 21.8463
306 2 13.9087 9.9891 16.6478
319 3 13.8321 10.5518 17.3094
374 3 10.2212 15.7134 18.1842
375 3 12.2312 15.9742 16.9039
491 3 11.4887 13.2304 20.7045
2 1 15.167 12.751 16.7942
3 1 14.1379 10.4935 19.5268
5 2 12.1618 15.6379 17.8541
7 2 13.1592 11.0894 17.4934
8 2 13.3281 11.19 15.8766
9 3 14.3336 15.0708 20.6924
12 3 13.1323 11.4459 16.7052
14 3 13.2573 11.5343 18.0397
15 3 13.8907 10.5628 16.0959
18 3 12.7201 15.2054 17.8776
124 1 11.8169 13.2204 16.5497
125 2 12.3446 9.70948 17.0356
126 2 11.8533 10.3722 15.6648
131 3 13.9928 8.8051 19.7648
136 3 12.5462 10.5333 17.381
138 3 12.6716 10.7796 15.6882
363 1 13.1304 13.826 20.1618
367 2 10.6324 15.4548 17.6428
372 3 10.8837 16.1225 17.089
380 3 11.4715 15.3787 17.9207
481 1 11.1226 11.6044 21.0474
490 3 11.9284 9.95073 16.4281
496 3 10.456 14.9012 17.232
ITEM: TIMESTEP
20500
ITEM: NUMBER OF ATOMS
540
ITEM: BOX BOUNDS pp pp pp
2.3732985060608147e-01 1.5878816729393883e+01
2.4133895812391604e-01 1.6147050511876071e+01
3.3736403651938396e-01 2.2571714823480537e+01
ITEM: ATOMS id type x y z
264 1 1.75613 7.09998 2.04284
270 3 4.87375 2.40842 2.22785
276 3 1.92269 6.56175 4.02988
277 3 5.54782 1.29274 7.68773
280 3 5.72427 15.9329 5.61516
323 1 4.16289 3.80997 6.63294
327 2 1.52036 4.35459 5.27064
329 3 2.03481 5.3416 3.44273
332 3 3.12616 6.46215 1.18503
334 3 1.406 3.66745 5.36371
337 3 3.40511 5.05896 5.42213
445 2 6.12446 0.607803 5.77116
449 3 6.0469 0.810851 6.56454
451 3 6.70003 2.01426 5.58843
458 3 5.5931 1.40345 5.54719
502 1 5.91326 3.83119 3.61799
514 3 5.72169 2.80099 5.43392
160 3 1.11724 5.71508 4.50535
453 3 6.80851 0.792029 5.55283
456 3 5.69019 2.06814 6.58016
507 2 5.96006 2.25096 5.73352
512 3 7.3223 3.41329 2.44674
325 2 1.86929 5.42358 4.10057
330 3 4.97867 5.35126 3.06204
338 3 1.71362 4.57002 4.50346
504 1 4.90062 6.81971 1.74127
466 2 5.5489 1.3762 7.04112
528 2 7.3192 1.51981 5.20796
526 2 2.72836 5.3797 5.53275
539 3 2.14382 4.68666 5.67594
322 1 4.54346 6.63703 4.41414
212 3 4.55 8.12838 2.99136
324 1 3.55698 4.76686 2.21363
336 3 2.36114 5.59029 4.75356
348 2 0.827599 5.78119 5.22249
355 3 1.38359 5.96753 5.8155
211 3 4.50508 0.538314 5.48037
288 2 4.56647 1.24475 5.75738
295 3 4.77259 1.21375 6.53316
509 3 2.68643 5.88999 6.04028
207 2 1.88899 6.86404 4.65889
214 3 2.47237 6.77132 5.19504
37 3 1.18365 6.96137 5.04869
340 3 2.13407 6.94804 6.45464
205 2 2.81814 7.01012 5.98982
213 3 4.19159 1.7714 5.47871
218 3 3.47467 6.96516 6.13931
505 2 1.51937 6.38534 6.52537
518 3 1.42765 6.11338 7.15061
384 1 2.56071 2.41859 4.17713
271 3 0.886847 4.89677 5.42441
272 3 2.10555 1.84065 2.58646
333 3 2.06394 7.79659 4.63136
243 1 5.79345 0.97181 3.03086
262 1 3.39597 1.97613 1.34388
378 3 6.96606 0.809737 0.685878
444 1 6.34913 3.14612 0.975189
365 2 7.56888 0.492686 1.04484
535 3 7.19591 1.48647 4.5275
40 3 2.65891 7.90202 5.74383
235 3 1.2864 8.07862 5.60096
197 3 7.50992 16.3091 1.75805
479 3 7.94002 1.59525 5.52926
181 1 0.761032 1.25519 1.69458
239 3 0.90236 7.00232 6.36221
226 2 0.744585 7.443 5.64062
228 2 2.05575 8.30425 5.29565
369 3 8.36253 0.910584 0.964738
84 1 8.62384 2.16204 2.80016
209 3 15.7394 7.63802 5.48972
273 3 15.7967 6.01035 5.3431
261 1 15.3552 4.04069 3.09348
269 3 14.4809 2.62668 2.85482
278 3 14.5905 7.61445 1.52045
81 1 14.0847 6.92774 4.19223
82 1 13.4902 2.7121 1.21924
83 1 13.1579 1.60809 3.91746
86 2 11.7043 1.01481 2.02089
96 3 14.953 6.59806 0.911575
98 3 9.6634 0.662312 1.4472
99 3 11.9286 1.54835 1.57499
143 1 11.7734 7.65212 5.96916
147 2 14.4554 5.95643 1.25689
148 2 13.7821 7.38871 1.58929
152 3 13.8434 6.6421 1.60823
154 3 14.7746 5.69758 1.85896
155 3 13.4141 7.89921 2.09708
450 3 10.8839 0.92505 2.00916
73 3 13.5569 7.72181 0.818785
91 3 12.9911 6.51077 5.47501
321 1 14.074 6.14917 6.72614
437 3 12.0083 0.978156 2.68244
31 3 12.5127 0.635868 5.35815
149 3 10.1257 8.04105 7.2133
386 2 9.16428 0.755501 0.732623
89 3 9.9735 0.741158 7.39337
265 2 15.2026 7.38683 0.915725
100 3 0.205441 7.4612 1.0054
85 2 10.2157 16.2478 1.95108
279 3 14.1526 5.57977 0.767517
443 1 11.6896 16.0465 6.88629
399 3 9.40611 1.30022 0.323986
267 2 4.8578 15.5817 5.3553
274 3 4.95982 15.4446 4.672
326 2 0.403906 8.78458 0.598854
216 3 4.64001 15.1866 5.85846
202 1 3.24257 9.21548 3.38244
442 1 6.69842 13.8281 5.028
201 1 3.09867 9.38868 7.36052
220 3 7.48289 12.5916 7.41714
331 3 2.15455 9.00358 5.22993
385 2 6.92878 12.0117 7.43479
389 3 6.29606 12.5259 7.00919
27 2 1.33371 9.66888 1.51538
156 3 1.61129 9.52795 2.17257
34 3 1.62345 10.1342 1.03706
339 3 1.01493 8.94855 1.14079
396 3 6.73496 13.5759 7.64314
210 3 8.18772 13.7187 4.08586
406 2 6.05088 13.0586 7.64681
419 3 5.46054 13.2833 7.74387
398 3 6.97625 11.3953 7.3948
282 1 4.42174 15.0868 7.88486
200 3 7.81701 15.6543 0.632794
32 3 0.480246 10.0544 1.62841
35 3 15.8335 9.77037 0.435774
137 3 15.3928 8.72601 1.06041
460 3 10.0501 16.0378 2.56838
447 2 7.5969 13.4299 7.58736
454 3 7.86193 13.7722 7.01069
497 3 13.424 8.80389 3.05362
146 2 13.3381 8.71838 2.33812
510 3 14.188 8.93075 1.92116
159 3 12.8854 9.07156 1.91914
145 2 14.6148 9.06969 1.30492
373 3 11.8567 0.25919 1.61622
142 1 15.8011 9.20797 3.62175
24 1 8.94013 15.7042 6.0336
28 2 15.5547 10.3139 1.02065
455 3 10.7048 15.6741 1.50196
448 2 11.4799 15.5501 1.24483
382 1 8.71737 14.3273 2.43326
520 3 14.8431 9.84075 1.27416
394 3 11.8995 13.4527 1.43838
395 3 12.186 13.0787 3.17898
21 1 11.3736 15.4018 4.26915
23 1 15.5104 10.1812 6.3134
25 2 11.3151 13.0397 2.93517
26 2 11.89 14.093 1.92662
29 3 10.4234 14.6982 5.80288
38 3 10.8938 12.8554 3.3973
39 3 11.72 14.754 1.66982
144 1 13.5068 10.7158 3.89658
151 3 14.9418 10.4988 4.65438
383 1 9.68063 13.0808 5.17938
387 2 12.0279 12.5692 1.59054
388 2 12.9236 13.2515 2.7561
390 3 11.3855 13.7707 2.56016
392 3 12.7485 12.727 2.1043
400 3 11.4644 12.6092 2.21053
516 3 12.0058 12.0725 1.13113
377 3 12.603 13.9378 2.36274
493 3 13.5434 13.2161 3.01931
22 1 15.1351 12.6247 1.68299
121 1 12.2724 10.2291 22.637
391 3 7.89779 13.525 8.23078
176 3 12.4147 9.43677 7.48477
158 3 14.2038 8.81223 0.664246
452 3 11.6111 15.458 0.598648
133 3 15.4559 10.991 0.903722
342 1 1.39267 4.11794 7.82065
524 1 3.28361 6.2025 8.59206
287 2 5.48798 1.91122 13.9353
291 3 1.69262 5.32529 12.7708
293 3 1.48117 6.6559 12.7104
294 3 4.99302 2.32225 14.201
343 1 3.53204 2.23436 12.3812
347 2 2.64421 6.06666 11.451
352 3 0.684196 4.16131 9.4282
354 3 2.59125 6.15735 13.1576
357 3 2.34036 5.33481 11.6537
464 1 4.69608 1.66424 9.69942
469 3 6.37615 2.08176 14.0142
478 3 6.40465 1.30026 12.4473
522 1 2.44308 3.51047 10.1247
529 3 2.93596 5.01653 12.7413
534 3 6.06659 2.43363 11.8386
104 1 7.13752 4.30506 12.0561
180 3 2.09679 6.63025 11.6844
476 3 6.75181 2.48331 12.9215
527 2 6.13663 2.06251 12.4484
532 3 3.44621 2.11029 10.7023
231 3 5.22934 1.08117 13.8484
236 3 5.57032 2.02899 13.0261
345 2 1.46245 7.0979 12.0199
350 3 3.38496 3.99342 8.45405
308 2 1.75446 6.05651 13.1862
315 3 1.50852 6.0424 13.8263
426 2 7.09319 2.30177 13.6791
439 3 7.60434 1.65576 13.4614
486 2 2.26002 4.82649 12.3369
499 3 2.14914 4.14556 12.2207
525 2 3.31712 5.86093 12.8541
360 3 3.21044 6.08756 12.0592
538 3 3.87687 5.91162 13.1676
349 3 0.784388 6.91879 11.6638
358 3 1.68914 7.77032 12.1203
473 3 6.49721 0.860153 13.6886
296 3 2.8674 6.13622 10.7835
233 3 4.30649 0.41732 13.0685
248 2 5.00265 0.384715 13.3469
465 2 6.45003 0.577534 12.9228
379 3 6.00029 1.17361 14.94
366 2 6.40504 0.79879 14.5706
297 3 7.43035 2.81053 14.0292
232 3 2.90557 8.13009 8.92885
300 3 5.58116 0.465983 12.766
471 3 7.32988 0.549884 12.7882
488 2 7.95737 0.966478 13.149
230 3 8.06653 0.492802 9.51266
222 1 0.896345 8.15271 8.31945
284 1 15.4866 5.41409 10.2592
517 3 8.16971 3.37615 9.4827
462 1 8.00773 1.67448 10.8033
441 1 8.60721 2.31905 7.60586
495 3 8.53038 1.07871 12.7169
472 3 9.64545 4.41317 12.1282
281 1 15.3758 4.29985 13.0448
141 1 10.3216 6.72033 8.40815
97 3 14.3823 7.00275 9.65044
457 3 10.341 2.57181 10.7519
393 3 10.7423 4.74755 11.5527
286 2 13.9904 7.58532 9.42175
289 3 14.3403 5.21178 11.7382
299 3 13.2881 7.71678 9.84521
475 3 9.61446 4.9503 10.9127
101 1 14.3937 6.99628 12.1312
102 1 12.1775 2.33724 9.61977
103 1 12.7835 4.18051 11.75
105 2 9.29561 5.07242 10.2008
106 2 10.0028 3.15783 10.5848
109 3 10.5399 2.49975 14.2083
118 3 9.0531 5.69813 10.08
119 3 10.004 3.73511 11.1109
461 1 10.0948 4.20608 14.1022
468 2 10.0324 4.45121 11.5403
470 3 8.75575 4.37791 10.0746
480 3 9.92759 4.78014 9.6583
51 3 13.0458 2.51848 11.1342
166 2 8.72759 3.644 9.72555
179 3 9.22684 3.16178 10.249
530 3 9.37447 3.79932 9.14989
44 1 10.4073 1.51168 12.667
41 1 13.0431 0.811199 11.8501
540 3 10.3296 3.56041 9.86218
165 2 10.156 4.10659 9.26003
178 3 10.5886 4.15147 8.74385
49 3 12.0651 0.835242 13.3124
523 1 11.0865 6.67672 11.5209
174 3 11.9144 7.61278 10.0637
93 3 13.6521 7.49282 8.62934
113 3 13.0369 4.61768 14.3891
167 2 12.4555 7.93096 9.73762
168 2 13.0016 7.78665 8.20373
175 3 12.7706 7.43294 7.66486
244 1 14.9556 8.07976 14.6345
172 3 12.4834 7.78874 8.86765
258 3 13.3726 5.84194 14.3281
463 1 12.2022 1.93666 14.814
135 3 12.3015 5.4094 13.6717
128 2 12.6701 5.3478 14.2005
111 3 11.2422 8.16312 12.7291
163 1 11.504 7.95924 14.5525
117 3 13.6669 3.65968 15.0115
70 3 14.0499 5.01438 15.0333
416 3 7.21461 0.653713 14.7109
474 3 8.12451 0.497231 13.7987
344 1 3.33423 8.449 10.7033
255 3 5.17195 15.6297 13.7275
409 3 6.1859 15.8991 14.5081
217 3 6.46972 12.3896 8.14537
290 3 4.8451 15.6083 9.59073
50 3 1.56781 10.2332 7.76431
404 1 4.66922 14.9371 11.3887
263 1 6.84914 14.9964 9.45011
292 3 6.27824 13.8042 10.9446
221 1 4.27178 13.9612 14.3832
224 1 5.74522 12.296 10.1418
225 2 2.14224 11.2231 11.4156
227 2 2.87217 10.587 12.7393
229 3 2.44498 11.996 11.8631
234 3 2.20679 10.7211 12.079
237 3 6.10529 14.6461 13.9709
238 3 1.61917 11.2382 10.9661
341 1 2.21759 8.46038 14.1328
351 3 3.4928 10.4874 12.153
353 3 4.26611 10.836 11.0525
356 3 2.761 10.1308 13.2212
405 2 6.27677 15.3108 13.8998
418 3 6.41206 15.6353 13.2119
57 3 3.00145 11.3897 12.8401
60 3 2.93758 11.0667 11.1256
186 2 3.16429 12.0817 12.412
188 2 3.76197 10.9998 11.4333
195 3 3.75992 11.7377 11.8403
199 3 3.27171 12.6647 12.7394
240 3 7.27642 15.4233 14.1145
402 1 7.79434 14.462 12.1538
42 1 0.801449 11.1181 9.14527
467 2 7.74848 15.9597 14.4333
182 1 0.378195 12.2891 13.4692
503 1 10.2862 9.72227 7.45785
54 3 13.1407 8.58242 8.05796
411 3 8.20609 15.7422 14.9033
170 3 14.6343 10.691 8.09227
162 1 15.4605 9.65836 11.9496
110 3 14.2944 8.3276 9.43923
192 3 14.8317 11.3062 12.6169
285 2 14.3568 9.14094 9.57647
116 3 12.4215 8.73565 9.8039
120 3 14.8432 9.29424 10.0922
511 3 10.3618 11.4667 7.90851
298 3 13.5512 9.31257 9.7585
157 3 14.405 9.59534 8.88281
203 1 9.30561 12.3115 8.96872
501 1 12.2365 11.8789 8.49576
114 3 11.6885 15.4266 9.01415
359 3 13.5586 9.8658 7.89555
33 3 12.7208 14.1191 10.9892
153 3 12.4632 10.0188 9.96711
381 1 9.59041 15.613 8.82109
397 3 11.6503 13.9967 10.3736
513 3 11.5158 12.6275 10.4159
107 2 11.9609 15.5328 9.65529
108 2 12.6188 14.1167 10.1636
112 3 12.4964 14.852 9.88
115 3 12.8972 13.6405 9.77934
169 3 11.9631 10.9916 12.512
346 2 14.0951 10.3169 8.43035
414 3 10.4196 14.5168 10.8098
415 3 11.8477 13.316 11.4624
531 3 10.5796 13.5295 14.8086
43 1 13.4572 10.2985 13.6272
45 2 12.2357 14.0766 11.7085
46 2 11.1463 14.7074 10.723
47 2 12.8897 9.34282 7.98341
48 2 12.76 9.53595 9.57166
52 3 12.6399 9.46972 8.76969
55 3 13.6502 10.6351 8.89573
56 3 12.1995 16.148 9.93426
58 3 12.4577 14.1043 12.3237
59 3 11.3231 15.2547 10.2506
161 1 11.4026 9.55845 11.7338
164 1 13.3164 11.7012 11.2442
171 3 14.4548 8.59688 12.9773
403 1 11.6917 15.2388 14.3269
407 2 9.87409 13.8101 11.0445
408 2 11.3894 13.1179 10.7972
410 3 11.6052 14.6321 11.4206
412 3 10.6551 13.3325 10.9254
420 3 9.69607 13.7752 11.7234
521 1 10.8825 12.1408 13.4521
536 3 9.40484 13.6923 10.5063
139 3 10.7072 10.6259 15.3326
223 1 9.09819 14.3135 15.5219
424 1 6.46057 3.65334 15.7232
446 2 3.78787 3.92939 21.8079
459 3 4.2781 3.28055 21.5519
515 3 4.731 2.13965 20.9589
508 2 4.64481 2.80858 20.9295
506 2 4.92521 5.0636 21.5423
519 3 4.26846 4.58193 21.7218
250 3 4.44503 1.01565 17.7548
251 3 0.757888 6.4784 19.0489
257 3 3.4142 3.87225 22.375
260 3 2.964 3.56894 19.7942
303 1 2.63841 6.28477 21.7645
317 3 5.0609 5.58653 21.9668
422 1 6.23735 0.751386 21.1409
425 2 3.53094 3.68395 20.1803
429 3 3.32772 3.87292 21.039
431 3 5.37743 4.36746 20.0784
438 3 4.04846 4.37078 20.0204
482 1 2.68012 5.1253 18.0307
489 3 5.49107 4.39134 21.3566
494 3 4.70058 5.28676 19.3767
64 1 6.20607 5.39271 17.9539
433 3 4.06924 3.07785 20.3594
436 3 4.70909 5.23105 20.7323
487 2 4.71324 4.89628 19.9632
492 3 5.26441 4.79949 16.341
310 3 2.40419 5.30211 16.3653
318 3 0.595532 5.14652 19.2157
364 1 3.32982 1.11636 19.0721
484 1 3.7195 4.85879 15.2027
320 3 6.39973 3.73404 20.6795
485 2 5.72053 3.91363 20.7263
498 3 5.26107 3.26255 20.8011
268 2 1.99704 0.778875 21.4843
193 3 2.52765 0.564582 21.0948
314 3 1.10824 5.99005 20.2002
302 1 0.922598 6.07995 15.8252
335 3 0.841452 6.57778 17.7438
254 3 1.34722 1.47266 20.9197
275 3 2.01138 0.937355 22.155
283 1 6.20909 1.63241 18.0849
328 2 0.34965 6.6279 18.247
190 3 7.27645 1.29098 19.6666
63 1 1.11257 3.41219 20.7551
432 3 7.56621 3.03033 17.3563
247 2 0.698437 0.981751 20.8311
196 3 0.423734 0.771806 20.2445
191 3 1.20189 0.40205 21.3099
307 2 0.738132 5.94904 19.6714
150 3 0.539903 8.49939 22.2281
421 1 8.22856 2.95365 20.103
79 3 8.4355 3.86399 16.688
132 3 12.3573 5.53573 15.0474
95 3 15.7497 1.3053 21.3269
90 3 14.7455 7.72854 22.4908
80 3 14.4797 6.27146 14.9516
245 2 13.9432 5.8785 14.9848
246 2 13.5016 4.34347 15.0685
266 2 13.9897 8.15705 22.4694
256 3 15.5214 5.89537 19.66
428 2 8.23565 3.17283 17.3718
435 3 8.51829 3.75051 17.9651
78 3 8.08255 4.96517 18.0409
253 3 15.5113 7.22272 18.2377
305 2 15.3765 5.34469 18.9894
309 3 14.9514 4.83847 19.0632
140 3 15.4806 5.85365 18.418
94 3 14.9249 2.4429 21.4024
77 3 13.6417 8.19423 21.8697
11 3 14.0939 2.30409 20.2831
87 2 14.0644 2.17119 20.9763
88 2 15.1515 1.69506 21.7523
423 1 13.567 5.98402 20.9391
13 3 15.147 1.62777 22.4203
36 3 13.5106 2.33111 21.3452
92 3 14.4157 1.41306 21.2837
241 1 13.4828 3.38166 18.6696
477 3 9.26138 4.5143 15.9582
413 3 8.79285 2.71739 17.254
249 3 11.8309 4.01619 18.8847
259 3 13.0222 4.69724 15.687
61 1 11.1274 5.61947 18.5044
62 1 10.6869 2.7001 18.7482
65 2 8.70477 4.59358 18.1516
66 2 8.98081 4.39204 16.5703
69 3 10.062 1.94898 20.1681
71 3 12.4711 6.75502 19.6338
76 3 13.4275 5.95357 15.6339