ITEM: TIMESTEP
0
ITEM: NUMBER OF ATOMS
540
ITEM: BOX BOUNDS pp pp pp
0.0000000000000000e+00 1.6116146579999999e+01
0.0000000000000000e+00 1.6388389470000000e+01
0.0000000000000000e+00 2.2909078860000001e+01
ITEM: ATOMS id type x y z
264 1 0.925914 5.85102 1.41768
267 2 1.7169 0.0953546 4.63858
270 3 4.82592 1.65695 1.45451
271 3 0.829523 5.79342 4.84097
274 3 1.05926 0.126817 4.75524
276 3 1.27869 6.98013 4.51616
277 3 5.18166 3.34903 6.8347
280 3 5.21623 2.06804 4.47846
323 1 3.85447 6.05049 5.08328
327 2 1.40681 6.01419 4.3196
329 3 0.511418 7.66789 3.69231
332 3 1.99256 7.26159 0.809254
334 3 2.02975 5.77585 4.31402
337 3 3.97157 8.12694 5.43248
442 1 6.25024 0.23036 4.60798
444 1 5.42496 3.37242 1.22822
445 2 5.42931 2.60362 4.81062
449 3 5.20714 2.7649 5.62557
451 3 6.4369 3.92055 5.00864
458 3 5.36773 3.41535 4.55251
502 1 6.10998 5.86304 2.71374
514 3 5.48042 4.76176 4.56857
160 3 0.0483815 6.79042 4.53145
453 3 6.29967 2.65407 4.9774
456 3 5.34893 4.0209 5.67122
507 2 5.63443 4.17614 4.86965
512 3 6.70118 4.32811 2.11105
216 3 2.11176 0.31389 4.13398
321 1 1.5984 7.47568 7.27489
325 2 0.598594 7.15662 4.11456
330 3 5.01266 7.20299 2.60027
338 3 0.975613 6.25145 3.6683
384 1 3.38387 0.934226 2.52216
504 1 4.01185 7.49824 1.01059
348 2 0.0238091 6.06369 5.14962
355 3 0.0648926 6.35406 5.79461
466 2 5.41277 3.35372 6.21885
479 3 6.28592 3.26117 6.08811
535 3 7.45042 3.1345 5.44251
528 2 6.78231 3.22256 5.41282
243 1 6.3115 0.560636 1.60931
84 1 8.00909 3.52888 3.02022
272 3 2.71576 0.204276 1.00243
100 3 15.6984 4.0862 1.53139
261 1 15.3292 3.78076 4.09726
265 2 15.0823 4.30677 1.41103
266 2 13.6155 4.09834 0.817161
269 3 14.467 2.17121 4.01034
273 3 15.6328 5.60855 4.94571
278 3 14.9865 5.04464 0.958489
279 3 13.4374 4.39301 1.60538
455 3 9.06756 1.41933 2.7402
81 1 13.7099 6.75316 4.0856
82 1 13.1488 2.22374 2.69518
83 1 14.8738 0.483403 4.68368
85 2 9.72191 1.66542 3.3662
86 2 10.237 2.01609 1.88187
89 3 9.8556 0.725526 6.50221
90 3 14.4583 3.88423 1.02755
91 3 13.2676 7.49653 5.84214
94 3 13.8133 0.434916 1.62251
96 3 14.5964 4.57343 2.08143
98 3 9.48562 2.25883 3.69533
99 3 9.47054 2.27488 1.79128
143 1 14.669 6.91474 7.0956
147 2 13.813 4.96867 2.13773
148 2 14.2999 5.5334 0.736277
152 3 13.9779 5.54288 1.52861
154 3 13.5938 5.12032 2.74721
155 3 14.3856 6.05637 0.341206
441 1 9.22167 2.2645 5.92396
448 2 8.97859 1.36027 1.95502
450 3 10.271 1.89243 2.67113
452 3 8.39067 1.28119 1.64367
460 3 9.95245 1.10155 3.71464
141 1 11.6827 7.48318 7.09951
146 2 12.6935 7.96573 1.30574
159 3 12.8711 8.15125 0.683193
73 3 13.8202 4.84187 0.479999
77 3 13.2504 3.62886 0.511858
437 3 10.7559 2.13846 1.48837
497 3 12.2876 7.56343 1.61099
373 3 9.70004 1.13905 1.69259
211 3 2.17472 16.0964 5.23581
288 2 2.70691 15.7601 5.78072
295 3 2.9217 16.1879 6.25874
526 2 3.67134 8.51574 5.94855
539 3 3.50892 8.26399 6.58868
322 1 4.56985 8.79112 3.41547
340 3 4.14877 10.4547 5.3754
509 3 4.00875 9.33501 6.00319
447 2 7.8645 14.6499 5.54928
201 1 3.91155 13.2592 5.79423
202 1 2.79519 11.0006 2.22882
204 1 1.54732 15.397 0.375934
205 2 3.49427 10.7395 4.66568
207 2 2.67299 9.56192 5.32802
209 3 2.32618 10.8135 4.3722
210 3 6.33723 15.8424 2.99404
212 3 3.39746 9.23529 1.95817
213 3 2.87437 15.1159 5.65538
214 3 3.17921 9.93099 4.80175
217 3 6.75041 14.2107 6.74262
218 3 3.77598 10.9352 4.10426
220 3 7.00008 14.2893 5.50686
324 1 1.69676 8.51435 2.21377
331 3 2.94715 10.2185 5.98683
333 3 2.7414 11.4695 6.5187
336 3 2.88912 8.9203 5.57937
382 1 7.44177 14.4681 3.04346
385 2 6.35526 14.2518 5.97482
389 3 6.39498 15.1801 6.24764
398 3 5.77584 13.9709 5.83358
505 2 4.05786 10.137 6.0613
518 3 4.20182 10.4234 6.64553
34 3 0.904681 10.9815 1.25538
37 3 1.99438 9.81405 5.12981
40 3 3.17093 11.2141 5.29062
396 3 7.65395 15.0541 6.33807
226 2 1.73447 10.6706 4.79006
228 2 2.67709 11.083 5.98355
235 3 1.96728 10.9997 5.58589
239 3 1.07443 10.7111 4.6338
406 2 7.02475 15.1255 6.83631
419 3 7.03283 15.4348 7.41529
454 3 7.93491 15.1289 5.03053
339 3 0.207625 9.93171 0.697374
27 2 0.317544 10.6028 1.39758
156 3 0.251985 10.2139 2.00195
31 3 13.5659 15.6632 4.97854
87 2 13.8694 16.1488 1.59638
88 2 14.7447 15.5849 0.281358
92 3 14.3114 15.8594 0.958718
142 1 15.5325 9.82445 3.77116
149 3 11.8029 9.42235 7.07266
443 1 12.5744 14.9529 6.43677
503 1 13.2961 9.39767 5.94661
520 3 13.6956 8.68799 2.9709
203 1 8.2831 12.6316 7.0955
326 2 15.7859 9.68257 0.219148
391 3 8.32652 14.1274 5.66114
394 3 9.66053 13.734 1.61711
395 3 10.9354 12.4671 1.77403
511 3 9.48043 11.6983 6.1145
21 1 12.4984 14.9167 3.65549
23 1 15.8739 10.983 6.31874
24 1 10.036 16.0417 5.00872
25 2 10.9521 13.0576 2.4036
26 2 10.402 13.948 1.21233
28 2 15.0875 11.1114 0.545368
29 3 11.2177 14.5984 5.05654
32 3 15.7064 10.9618 1.14187
36 3 13.6307 15.6794 2.02107
38 3 11.4346 13.0127 2.87228
39 3 10.4446 14.516 0.87899
144 1 12.9407 11.5699 1.9779
145 2 13.3261 8.98806 2.47944
151 3 14.6013 10.348 5.25037
158 3 13.1329 9.64393 2.43451
383 1 10.1354 13.0403 5.0333
387 2 9.39922 13.0494 2.07883
388 2 10.4243 12.3511 1.07169
390 3 10.9034 13.7353 1.88618
392 3 9.67858 12.4754 1.51329
400 3 10.1147 13.0237 2.58015
501 1 10.3529 10.448 6.91423
510 3 13.0682 8.50752 1.89039
516 3 8.78277 13.072 2.33666
137 3 15.2375 10.1967 0.205712
13 3 15.4076 15.5427 0.389541
133 3 14.4258 11.1398 0.806142
377 3 10.4763 13.1755 0.827728
493 3 10.5294 11.8477 0.660642
35 3 15.3512 11.5187 0.0369054
281 1 0.0132324 4.09492 13.9442
282 1 3.92062 0.787087 7.89136
284 1 0.519933 6.49831 9.91728
287 2 4.08303 1.90731 13.1491
290 3 5.34628 1.31275 9.00456
291 3 2.34317 6.31299 13.1263
293 3 1.55734 5.41466 13.6635
294 3 3.58352 2.26037 13.442
296 3 0.477018 7.12946 12.4181
297 3 4.7029 3.36524 14.2304
300 3 5.28815 0.759655 13.6851
342 1 3.54784 6.70513 9.84756
343 1 3.2591 4.27062 13.0341
347 2 1.22007 7.18482 12.4937
352 3 2.03162 6.67634 8.90982
354 3 1.58258 7.80024 12.7067
357 3 1.73436 6.75474 12.1026
464 1 6.18496 3.05566 8.72071
465 2 5.57768 1.42236 13.6033
469 3 4.94118 2.05413 13.8299
471 3 6.42637 2.61983 12.9866
478 3 5.56343 1.69582 12.8285
522 1 6.60526 6.40201 9.23229
529 3 2.77838 7.35699 12.523
534 3 5.57372 2.60182 11.811
104 1 7.33462 3.64859 11.082
180 3 1.07539 6.60361 13.2832
473 3 6.23039 1.69175 13.8766
476 3 5.19374 2.98653 13.0681
527 2 5.45079 2.4626 12.4344
532 3 6.60446 4.64888 9.70854
231 3 4.15522 1.1181 13.2375
236 3 4.43302 2.14576 12.5256
345 2 0.0936921 6.6345 13.2107
350 3 5.08322 7.46055 9.2252
404 1 4.36261 0.819132 10.6457
248 2 4.48829 0.310535 13.4038
255 3 4.19135 0.0166341 13.9702
308 2 1.7128 6.12218 13.7284
315 3 1.82785 6.41609 14.3599
426 2 5.12621 2.97896 13.9093
439 3 5.9168 2.90895 14.0998
495 3 7.2442 2.62831 13.9796
488 2 6.63279 2.55357 13.7087
486 2 2.61989 6.57582 12.401
499 3 2.99554 6.17026 12.0083
525 2 2.48162 8.16744 12.7499
349 3 15.9681 6.03457 13.0328
472 3 8.09369 2.13447 9.51027
358 3 15.9943 7.10072 13.6513
93 3 12.9026 5.09136 8.53938
97 3 13.1412 3.76287 8.60421
457 3 10.6909 1.81059 9.95385
517 3 8.68301 7.33999 8.81215
393 3 8.51147 0.955745 9.38669
285 2 14.3468 5.43173 9.29405
286 2 13.2525 4.37868 8.83896
289 3 14.6186 3.48445 13.2564
298 3 13.7782 5.95049 8.86896
299 3 13.0054 4.53964 9.68322
475 3 8.5647 1.53928 10.5709
101 1 13.862 5.02793 12.6492
102 1 12.558 2.05508 9.24438
103 1 13.9105 2.12036 14.112
105 2 8.95426 1.6363 11.335
106 2 10.0514 1.80975 10.1563
109 3 10.1867 0.646773 14.3582
110 3 14.0338 4.71063 8.9451
111 3 13.0206 6.56149 13.3301
114 3 13.3192 0.0771992 9.30424
116 3 13.8914 5.38345 10.0072
118 3 8.83753 2.27552 11.608
119 3 9.44926 1.84602 9.70107
120 3 14.9959 5.59784 9.28881
163 1 12.5455 6.65034 15.1455
167 2 13.0459 5.21044 10.1874
168 2 12.9107 5.92692 8.7824
172 3 12.7482 5.77847 9.59695
174 3 12.8498 5.23579 10.8248
175 3 12.6139 6.39907 8.40913
461 1 9.17684 2.17028 14.2452
468 2 8.51022 1.60403 9.70479
470 3 9.80631 1.69959 10.8599
480 3 8.96612 1.03078 11.7193
523 1 12.0719 7.29278 11.7999
540 3 10.497 7.8018 10.3648
51 3 13.3173 0.522659 13.6672
165 2 10.3667 8.12228 9.79489
166 2 9.31861 7.47859 8.65917
179 3 9.68217 7.45176 8.08882
530 3 9.79027 7.78474 9.29249
263 1 6.61624 16.3251 9.18317
292 3 3.32223 16.2915 9.43051
462 1 7.07792 16.3174 12.1934
233 3 4.64022 16.3559 12.8049
360 3 2.52898 8.61516 12.2005
221 1 4.49585 14.2456 13.372
222 1 2.6346 11.5933 8.59218
224 1 2.38303 14.8032 9.66927
225 2 1.1875 13.5988 11.7543
227 2 1.28603 12.0208 12.0004
229 3 0.740566 13.5081 12.4845
230 3 6.73245 15.3403 10.6986
232 3 3.60242 10.3461 9.60392
234 3 1.14017 12.7341 11.557
237 3 7.25811 13.9959 14.6153
238 3 1.05797 14.034 11.2717
240 3 7.68297 13.8651 13.4469
341 1 0.764117 9.19913 14.436
344 1 3.07179 10.2481 11.2715
351 3 2.05257 12.2854 12.332
353 3 2.93731 13.1108 12.9306
356 3 1.245 11.4105 11.7174
402 1 7.79418 13.9442 10.9336
405 2 6.99836 13.8542 13.854
409 3 6.98646 14.9054 13.9639
418 3 6.4258 13.5977 13.6531
524 1 4.44498 9.10393 8.51166
538 3 2.61921 8.32845 13.4159
50 3 1.88273 13.2704 8.87454
57 3 0.821588 12.2546 12.6757
60 3 1.95463 13.535 12.1276
186 2 0.774065 12.9884 13.1568
188 2 2.30827 13.007 12.7206
195 3 1.63465 13.0492 13.2589
366 2 7.51381 14.9453 14.5812
379 3 7.48392 15.3425 15.1196
359 3 0.182135 9.59829 8.70589
42 1 0.151776 13.0133 9.44315
54 3 0.38579 10.8843 8.66834
199 3 0.366026 13.0008 13.6842
474 3 8.5848 14.69 12.9006
467 2 8.51209 14.2881 13.4926
416 3 8.21589 14.8002 14.1846
157 3 15.9355 8.35872 8.24848
33 3 14.6171 14.319 8.93564
153 3 14.1361 10.1177 8.85767
381 1 9.53399 16.1849 7.99765
397 3 10.968 13.1456 8.35211
513 3 10.9213 11.7976 8.47865
107 2 13.5175 15.9066 9.63925
108 2 14.1131 14.6757 8.66776
112 3 13.819 15.2961 9.16885
115 3 13.8162 14.6687 8.06636
162 1 16.021 9.64915 11.408
169 3 12.4644 8.9367 12.5501
463 1 11.9352 16.1165 14.5574
223 1 9.87999 12.5693 14.9914
346 2 15.8673 8.76509 8.82644
411 3 9.00586 13.8353 13.716
414 3 9.99168 13.8853 8.72493
415 3 11.0221 12.6366 9.51108
531 3 11.0119 11.8243 13.78
41 1 13.3892 15.6745 12.3278
43 1 15.2205 11.1797 14.1721
44 1 10.1936 16.1206 12.5958
45 2 10.9279 13.3396 10.0095
46 2 10.859 13.9765 8.54756
47 2 16.1121 10.3552 8.76257
48 2 14.7717 9.94965 8.78154
49 3 11.7193 15.0421 12.9357
52 3 15.3 10.3046 8.20578
55 3 15.0632 9.21229 8.80566
56 3 13.5361 15.7953 10.3078
58 3 11.1641 13.3772 10.6237
59 3 11.0425 14.4773 8.15086
161 1 14.0626 8.38045 13.4017
164 1 12.1517 10.1209 9.02784
170 3 16.0072 8.55878 9.48722
171 3 15.4531 9.68092 13.1087
176 3 15.4869 10.3251 9.34097
178 3 10.6484 8.68133 9.52132
403 1 11.1968 13.2588 12.6361
407 2 9.55619 13.321 9.20272
408 2 10.7623 12.4004 8.73366
410 3 11.0907 13.8891 9.36758
412 3 9.92888 12.6233 8.8575
420 3 10.0495 13.3735 9.8855
521 1 11.6612 10.0969 13.6709
536 3 8.88165 13.3575 9.25633
173 3 13.8704 10.0507 15.1857
262 1 3.81713 1.0309 22.7062
328 2 0.465346 6.2918 20.3588
335 3 1.04284 6.30713 20.7792
446 2 4.37304 3.30736 21.6675
459 3 5.20808 3.17304 21.9121
515 3 6.53676 3.04782 21.8163
508 2 5.96615 3.18561 21.492
506 2 4.75339 5.93575 21.7604
519 3 4.9384 6.26427 22.3422
283 1 6.21888 0.408958 16.2656
242 1 3.37239 1.03261 15.6338
244 1 0.398335 6.82492 16.1867
247 2 1.96431 1.45566 19.6362
250 3 4.89132 1.68621 16.6186
251 3 0.749112 5.99758 19.5071
254 3 1.41146 1.83846 19.6655
256 3 0.0897568 6.78749 18.7755
257 3 3.89326 3.20984 22.1041
260 3 4.9578 2.25145 19.8365
303 1 2.71386 5.19099 20.4229
307 2 0.766581 6.29087 18.7675
309 3 0.224539 8.14937 19.2159
314 3 1.02164 6.01638 18.2313
317 3 4.14408 5.63107 21.6562
422 1 6.61413 0.878018 19.5798
424 1 5.7303 3.33939 16.4686
425 2 4.98712 2.71166 20.3128
429 3 4.43897 2.79026 20.9591
431 3 5.80233 3.93879 21.1008
438 3 5.0375 3.56892 20.168
482 1 5.10727 6.27814 17.684
489 3 5.19633 5.98563 21.1034
494 3 5.17144 4.89591 20.4087
64 1 7.19964 4.60104 18.8371
140 3 0.340021 7.13874 20.0226
433 3 5.7036 2.70785 20.8361
436 3 4.55013 4.02057 21.2362
487 2 5.14594 4.24354 20.6732
492 3 6.09884 4.83474 17.3731
191 3 1.93813 0.737592 20.0861
196 3 2.53385 1.48563 19.2899
301 1 1.5304 8.10207 21.995
305 2 0.430388 7.53677 19.329
310 3 3.94938 7.38763 16.9232
318 3 1.1359 7.18832 19.041
364 1 4.17152 0.863043 18.1548
484 1 3.12195 7.67085 15.3165
432 3 8.05191 1.45099 16.8345
320 3 4.71435 6.04979 19.8955
485 2 5.3047 5.82506 20.2328
498 3 5.94947 5.87449 19.9674
423 1 11.544 2.2645 22.4371
241 1 15.8845 3.11351 19.3476
80 3 15.5487 3.66378 15.8684
113 3 13.3329 3.63332 16.3435
117 3 13.3659 2.33267 16.687
477 3 10.3544 1.76174 17.767
413 3 9.00845 1.19603 17.7046
245 2 14.99 3.70736 16.2298
246 2 13.6775 2.92695 16.6964
249 3 14.9151 3.20504 20.8053
253 3 15.9684 6.00306 20.5171
258 3 14.3652 4.26033 15.9771
259 3 13.91 3.31282 17.429
435 3 8.1507 2.07194 17.984
61 1 14.1905 4.87795 20.8236
62 1 12.2742 0.928422 17.6002
63 1 14.4099 2.11981 22.0907
65 2 8.52337 2.39397 18.7968
66 2 9.72034 1.95199 17.8008
69 3 9.88276 1.49716 21.8324
70 3 14.4446 3.03058 16.3058
71 3 13.3654 6.52611 20.2897
76 3 14.9519 3.92601 17.0509
78 3 8.36708 3.06964 18.8722
79 3 9.22835 2.20175 17.1963
122 1 14.0203 6.51599 18.5542
123 1 14.3158 7.41737 21.7188
127 2 14.295 4.05956 17.6169
128 2 13.5726 4.45462 16.2551
132 3 13.8307 4.53845 17.0945
134 3 14.4365 4.24738 18.2433
135 3 13.2046 4.92498 15.9646
421 1 8.36121 2.3454 22.1271
428 2 8.41304 1.66292 17.3641
430 3 9.35432 2.2422 18.4505
440 3 8.38723 1.89345 19.2955
4 1 9.76822 0.45742 20.1184
11 3 12.8676 1.21982 21.7904
130 3 14.7668 7.88061 16.3554
22 1 0.927605 12.3923 22.3445
30 3 2.07247 13.7918 22.5683
275 3 2.27805 16.291 20.9905
268 2 2.06671 16.3457 20.3556
206 2 0.919239 11.4486 19.6018
208 2 1.67864 10.3553 20.5052
215 3 0.993281 10.8174 20.2059
219 3 0.312443 11.7059 19.4634
386 2 6.63395 15.865 22.1866
399 3 6.56412 16.2806 22.6923
252 3 2.88812 16.3467 17.0278
302 1 2.72051 8.24393 17.9615
312 3 1.50794 8.42954 16.2139
434 3 7.67902 15.6465 20.4473
427 2 7.57768 15.2666 21.0429
181 1 3.45653 13.8087 21.3607
182 1 1.04107 12.6937 15.752
184 1 1.75889 15.1559 17.6837
185 2 2.40751 11.7218 20.0975
187 2 2.1371 10.6082 19.0038
189 3 1.5682 11.9049 19.8851
190 3 6.14648 16.1711 18.097
192 3 0.50544 10.9586 15.4756
193 3 1.97029 15.8916 19.8638
194 3 2.54218 11.2429 19.4015
197 3 6.43857 14.9911 22.2314
198 3 2.7994 12.2064 20.3245
200 3 6.7329 14.8596 20.9913
304 1 0.59162 9.91795 17.0118
311 3 1.9753 10.163 19.7269
313 3 1.60263 9.89369 20.9803
316 3 2.32843 10.281 18.4545
362 1 7.36959 14.881 18.4882
365 2 6.04215 14.8841 21.3974
369 3 6.00593 15.7744 21.5281
378 3 5.50303 14.5163 21.3059
10 3 0.646744 13.7856 17.1853
17 3 1.35841 11.0153 19.0001
20 3 2.17705 11.0541 20.6049
376 3 7.28426 15.8037 21.7156
371 3 8.04189 14.7996 21.2987
95 3 14.3544 15.4953 22.6555
150 3 15.8155 9.10269 22.803
67 2 13.1035 14.8102 18.3649
74 3 13.0583 15.4965 18.2207
483 1 12.2937 8.37353 20.0321
177 3 13.6094 8.26902 16.8468
537 3 11.7039 9.66666 16.1034
53 3 12.6423 13.312 16.8797
401 1 9.39689 16.2 15.9139
417 3 10.9196 14.1563 16.7462
533 3 10.8774 12.8649 17.0039
68 2 12.4948 13.9343 17.0823
72 3 12.8907 14.3072 17.6553
75 3 12.1182 14.4606 16.6617
129 3 11.4903 9.74998 21.173
500 3 12.8501 8.24268 17.9332
183 1 8.1648 13.1446 22.3826
306 2 14.3434 8.39978 16.4729
319 3 14.59 9.04408 17.0228
374 3 10.2009 14.9921 17.4826
375 3 11.6029 13.8 17.7292
491 3 9.33372 12.3765 21.2924
1 1 12.69 15.9006 21.1648
2 1 15.3427 13.3182 18.2983
3 1 15.1334 9.72899 19.7815
5 2 11.5625 14.5731 18.2905
6 2 11.2814 14.9272 16.788
7 2 14.1441 9.74147 17.2878
8 2 13.6945 9.66184 15.7359
9 3 10.832 15.5638 21.1162
12 3 13.9075 9.98624 16.5167
14 3 14.4491 10.1752 17.7177
15 3 14.1251 8.91603 15.8497
16 3 13.5956 14.4917 18.7461
18 3 12.1778 14.6302 18.6601
19 3 11.1959 15.4285 16.3515
121 1 13.0189 9.87053 22.1887
124 1 12.1698 11.3757 16.9832
125 2 12.9871 8.61582 17.3619
126 2 12.15 9.0975 16.0545
131 3 13.9121 9.03244 20.8675
136 3 13.4528 9.33761 17.5209
138 3 12.949 9.43911 15.8223
139 3 12.0224 8.5254 15.6351
361 1 10.1135 16.2047 22.8143
363 1 10.126 13.8957 20.6131
367 2 10.0265 14.5616 18.0447
368 2 10.8576 13.4865 17.2558
370 3 11.5162 15.0173 17.5987
372 3 10.2823 13.7579 17.7463
380 3 10.846 14.57 18.5469
481 1 10.2043 10.8672 21.5719
490 3 12.4349 8.83526 16.8516
496 3 9.45639 14.5895 18.4301
ITEM: TIMESTEP
100
ITEM: NUMBER OF ATOMS
540
ITEM: BOX BOUNDS pp pp pp
0.0000000000000000e+00 1.6116146579999999e+01
0.0000000000000000e+00 1.6388389470000000e+01
0.0000000000000000e+00 2.2909078860000001e+01
ITEM: ATOMS id type x y z
264 1 0.864009 5.98116 1.29619
267 2 1.784 -0.384324 4.58533
270 3 5.07881 1.68396 1.50188
271 3 0.900786 5.96559 4.86898
274 3 1.14477 -0.536126 4.65088
276 3 1.14533 7.19786 4.69109
277 3 4.97221 3.6415 6.56584
280 3 5.06393 2.14297 4.337
323 1 4.03101 6.05054 4.98493
327 2 1.4513 6.25631 4.39982
329 3 0.348378 7.84447 3.87868
332 3 2.02124 7.25859 0.89716
334 3 2.11643 6.04718 4.33654
337 3 4.20817 8.21735 5.44144
442 1 6.50401 0.284347 4.83458
444 1 5.44774 3.31398 1.09105
445 2 5.29274 2.64309 4.68976
449 3 5.01473 2.88342 5.47857
451 3 6.54481 3.72625 4.86116
458 3 5.41629 3.40651 4.41741
502 1 6.24154 5.82366 2.39813
514 3 5.83283 4.68626 4.25563
160 3 -0.0366602 6.8203 4.57087
453 3 6.15917 2.5392 4.9716
456 3 5.47366 4.12995 5.40758
507 2 5.8345 4.12608 4.63112
512 3 6.79191 4.17927 1.89339
216 3 2.10701 -0.0572557 4.09347
321 1 1.76791 7.45267 7.18806
325 2 0.487053 7.32233 4.2321
330 3 5.14186 7.16905 2.54234
338 3 0.991845 6.52149 3.77099
384 1 3.58956 0.922343 2.65351
504 1 3.92988 7.31816 0.969898
348 2 0.0485435 6.06434 5.14397
355 3 0.00644914 6.34742 5.81446
466 2 5.30316 3.49285 6.01397
479 3 6.14865 3.23344 6.00993
535 3 7.30965 2.76256 5.48
528 2 6.6871 3.02172 5.37047
243 1 6.42903 0.554276 1.76919
84 1 7.94735 3.42885 2.9627
272 3 2.79266 0.282117 1.23097
100 3 15.7151 4.26937 1.38231
261 1 15.0377 3.85243 4.23845
265 2 15.0835 4.42317 1.31891
266 2 13.635 4.14756 0.757147
269 3 14.2596 2.26808 4.05963
273 3 15.738 5.53032 4.93278
278 3 14.8921 5.14875 0.943625
279 3 13.464 4.37026 1.53372
455 3 9.19672 1.47175 2.57996
81 1 13.7319 6.76793 3.98384
82 1 12.9633 2.38117 2.62814
83 1 14.5272 0.542041 4.61077
85 2 9.7627 1.61634 3.35484
86 2 10.3871 2.28425 1.9678
89 3 9.8373 0.716181 6.54976
90 3 14.4726 3.95901 0.950065
91 3 13.2197 7.61068 5.86501
94 3 13.7173 0.472814 1.55127
96 3 14.5749 4.61295 2.03607
98 3 9.41949 2.14573 3.70827
99 3 9.68791 2.57002 1.90616
143 1 14.6085 6.94679 7.00923
147 2 13.769 4.95075 2.10545
148 2 14.1783 5.62932 0.731145
152 3 13.8429 5.55959 1.51587
154 3 13.5391 5.02616 2.72292
155 3 14.2687 6.16767 0.349879
441 1 9.13787 2.21672 6.0301
448 2 9.1531 1.56734 1.82752
450 3 10.382 1.97479 2.71203
452 3 8.57279 1.5009 1.46963
460 3 10.0064 1.0444 3.66694
141 1 11.6688 7.47007 7.01668
146 2 13.055 7.54495 1.45268
159 3 13.0455 7.51002 0.797996
73 3 13.7598 4.92481 0.429467
77 3 13.3052 3.65888 0.401855
437 3 10.9435 2.43167 1.60846
497 3 12.9051 7.22853 1.99317
373 3 9.88766 1.47017 1.52898
211 3 2.30809 15.7343 5.21578
288 2 2.84147 15.5088 5.80679
295 3 2.91219 15.9663 6.32233
526 2 3.84048 8.50845 5.96476
539 3 3.69988 8.16473 6.56752
322 1 4.75674 8.74434 3.32073
340 3 4.18644 10.4936 5.48624
509 3 4.06726 9.35 6.13862
447 2 8.0219 14.6366 5.75405
201 1 4.17166 13.0115 5.82648
202 1 2.93573 10.9761 2.22004
204 1 1.48886 15.4186 0.700952
205 2 3.64867 10.6709 4.74164
207 2 2.77689 9.50001 5.32451
209 3 2.34682 10.6318 4.24616
210 3 6.54231 15.8779 3.09423
212 3 3.54046 9.20431 1.84839
213 3 3.12323 14.8848 5.70142
214 3 3.28945 9.88025 4.83139
217 3 6.88016 14.0363 6.89258
218 3 3.94371 10.894 4.18293
220 3 7.21597 14.1911 5.64299
324 1 1.73892 8.52461 2.33159
331 3 2.97631 10.1482 5.97109
333 3 2.67685 11.4242 6.4534
336 3 3.06045 8.87721 5.56391
382 1 7.47951 14.3413 3.20772
385 2 6.53523 14.0816 6.04605
389 3 6.48173 14.9972 6.37022
398 3 5.98154 13.7788 5.88848
505 2 4.00733 10.162 6.21004
518 3 4.13343 10.4683 6.7669
34 3 0.894305 11.0408 1.06608
37 3 2.10851 9.71577 5.08487
40 3 3.20863 11.1652 5.26484
396 3 7.74216 14.9981 6.53908
226 2 1.78412 10.5031 4.64029
228 2 2.62462 11.047 5.88886
235 3 1.99017 10.9207 5.44648
239 3 1.14626 10.5513 4.52239
406 2 7.05188 14.9598 6.99758
419 3 6.98675 15.2624 7.57829
454 3 8.07462 15.0936 5.23089
339 3 0.268145 9.87692 0.733736
27 2 0.456786 10.5873 1.40153
156 3 0.582262 10.2186 1.98571
31 3 13.2303 15.8364 4.94811
87 2 13.8079 16.1846 1.63167
88 2 14.6517 15.529 0.377933
92 3 14.2139 15.8343 1.02547
142 1 15.5422 9.8608 3.73478
149 3 11.7792 9.35174 7.04944
443 1 12.5327 14.8452 6.61871
503 1 13.3266 9.44709 5.88912
520 3 14.0473 8.85869 2.63008
203 1 8.50054 12.7275 7.28943
326 2 15.795 9.58502 0.345125
391 3 8.51135 14.1622 5.94084
394 3 10.0349 13.9963 1.58742
395 3 10.9642 12.5079 1.7461
511 3 9.66232 11.5381 6.24223
21 1 12.378 14.8753 3.51334
23 1 15.9602 10.7704 6.39522
24 1 10.2913 16.0314 5.07909
25 2 10.9272 12.9621 2.47002
26 2 10.8566 14.0916 1.32872
28 2 15.0506 10.9411 0.798312
29 3 11.3307 14.414 5.00661
32 3 15.7537 10.8639 1.32461
36 3 13.6195 15.7963 2.15143
38 3 11.3298 12.7294 2.96678
39 3 11.0448 14.7063 1.17692
144 1 12.8484 11.5746 2.20052
145 2 13.5435 8.99975 2.2032
151 3 14.7033 10.4035 5.17013
158 3 13.1735 9.60004 2.17746
383 1 10.5253 12.8321 5.17691
387 2 9.54589 13.3422 1.87607
388 2 10.6104 12.5856 0.957889
390 3 11.1434 13.6893 2.02169
392 3 9.80163 12.7958 1.33423
400 3 10.1303 13.1189 2.51664
501 1 10.3493 10.3859 7.22778
510 3 13.2833 8.36725 1.751
516 3 8.88176 13.4332 1.99846
137 3 15.2072 10.0544 0.479905
13 3 15.3092 15.4854 0.514065
133 3 14.4357 10.9832 1.17616
377 3 10.839 13.3908 0.81424
493 3 10.6449 12.0928 0.529269
35 3 15.1836 11.3253 0.232514
281 1 0.121336 3.97638 13.5785
282 1 3.56945 0.760982 7.83198
284 1 0.404909 6.42341 9.65017
287 2 4.09635 2.06981 13.0718
290 3 5.08244 1.4459 8.79503
291 3 2.25953 6.4287 13.0739
293 3 1.63035 5.41824 13.5624
294 3 3.61133 2.47182 13.39
296 3 0.436581 7.15229 12.3694
297 3 4.84108 3.52391 14.0862
300 3 5.14454 0.789355 13.7065
342 1 3.41484 6.95722 9.9514
343 1 3.36901 4.35999 13.1185
347 2 1.1809 7.14793 12.4319
352 3 1.92827 6.76669 8.79705
354 3 1.5786 7.73869 12.7044
357 3 1.6706 6.75212 12.0135
464 1 5.87696 3.1876 8.60492
465 2 5.51765 1.42512 13.6147
469 3 4.99486 2.14179 13.7803
471 3 6.52659 2.42773 12.9893
478 3 5.52105 1.6906 12.7703
522 1 6.66788 6.50113 9.41152
529 3 2.77179 7.37169 12.34
534 3 5.71812 2.50803 11.7223
104 1 7.50244 3.59698 10.9532
180 3 0.951996 6.48906 13.2138
473 3 6.17916 1.61563 13.8737
476 3 5.36935 3.02436 12.9756
527 2 5.53743 2.46283 12.3724
532 3 6.53374 4.64293 9.80154
231 3 4.13382 1.29811 13.1812
236 3 4.45476 2.29074 12.4445
345 2 -0.00437483 6.57582 13.0705
350 3 5.07579 7.46885 9.38927
404 1 4.3142 1.01278 10.5809
248 2 4.28208 0.443126 13.4575
255 3 3.90032 0.324651 14.0367
308 2 1.62746 6.12958 13.6498
315 3 1.67002 6.43425 14.3056
426 2 5.25202 3.05593 13.8228
439 3 6.00478 2.87742 14.0574
495 3 7.3052 2.41828 13.9456
488 2 6.69176 2.4245 13.7078
486 2 2.54428 6.56438 12.3576
499 3 2.90669 6.10237 12.0033
525 2 2.41126 8.13597 12.6459
349 3 15.8917 5.96367 12.819
472 3 8.10174 2.14647 9.41415
358 3 15.8537 6.98654 13.5347
93 3 12.5923 4.88161 8.45015
97 3 13.1136 3.60554 8.58618
457 3 10.7547 1.83394 9.8281
517 3 8.67776 7.28206 8.7584
393 3 8.6193 1.00341 9.28371
285 2 14.0265 5.50717 9.1393
286 2 13.0948 4.2429 8.76502
289 3 14.5523 3.2522 13.0003
298 3 13.3689 5.91032 8.69746
299 3 12.8596 4.43777 9.60268
475 3 8.58207 1.57574 10.4838
101 1 13.6003 4.81402 12.5065
102 1 12.6244 1.83572 9.13343
103 1 14.0277 1.87855 13.9767
105 2 9.01118 1.6174 11.2336
106 2 10.1211 1.8087 10.0759
109 3 10.3257 0.58177 14.3841
110 3 13.8184 4.71163 8.82293
111 3 12.8331 6.47048 13.1088
114 3 13.3983 -0.00103379 9.47517
116 3 13.6275 5.42432 9.86686
118 3 8.97238 2.29385 11.4669
119 3 9.49067 1.92017 9.65037
120 3 14.6578 5.73829 9.05007
163 1 12.5736 6.6225 14.9678
167 2 12.8068 5.14382 10.0724
168 2 12.492 5.71832 8.64419
172 3 12.417 5.61017 9.4623
174 3 12.6059 5.12119 10.709
175 3 12.1314 6.16248 8.27937
461 1 9.46497 2.369 14.3504
468 2 8.58369 1.66104 9.5994
470 3 9.88847 1.60553 10.7589
480 3 8.97161 1.04193 11.6237
523 1 11.8833 7.20972 11.6496
540 3 10.4511 7.73518 10.273
51 3 13.4677 0.261261 13.7501
165 2 10.3823 8.0403 9.67689
166 2 9.29462 7.50955 8.55849
179 3 9.55763 7.60457 7.97231
530 3 9.77041 7.74887 9.19551
263 1 6.42396 16.4247 9.05475
292 3 3.22109 16.4573 9.48613
462 1 7.05733 16.4857 12.1514
233 3 4.37941 16.4082 12.9089
360 3 2.36845 8.62716 12.1408
221 1 4.493 14.327 13.2834
222 1 2.77659 11.7819 8.68914
224 1 2.25481 14.8331 9.73859
225 2 1.14351 13.6395 11.8813
227 2 1.29198 12.0346 11.9702
229 3 0.725725 13.4533 12.5834
230 3 6.58256 15.5133 10.6495
232 3 3.95047 10.4643 9.69664
234 3 1.17786 12.7748 11.612
237 3 7.18552 13.9107 14.5327
238 3 0.995662 14.0845 11.4096
240 3 7.61105 13.9028 13.3456
341 1 0.667615 9.04876 14.4335
344 1 3.21581 10.3009 11.3412
351 3 2.0554 12.2646 12.3338
353 3 2.93866 13.0533 12.9528
356 3 1.27813 11.4565 11.6216
402 1 7.57546 14.0173 10.8942
405 2 6.94405 13.8438 13.7407
409 3 6.93951 14.8859 13.989
418 3 6.35933 13.621 13.5096
524 1 4.6762 9.22554 8.56996
538 3 2.65022 8.2634 13.3031
50 3 1.88883 13.3549 8.87056
57 3 0.829176 12.1671 12.6827
60 3 1.91923 13.5611 12.2392
186 2 0.795684 12.8561 13.2142
188 2 2.32524 12.9586 12.7621
195 3 1.63105 12.9311 13.3144
366 2 7.45039 14.8363 14.6123
379 3 7.48049 15.2008 15.1719
359 3 0.244023 9.53281 8.62355
42 1 0.199548 13.0095 9.46456
54 3 0.864963 10.638 8.68079
199 3 0.412173 12.7884 13.7564
474 3 8.47687 14.7667 12.8497
467 2 8.44321 14.3215 13.4244
416 3 8.15259 14.7516 14.1685
157 3 15.5941 8.6071 7.9793
33 3 14.7092 14.3065 8.85187
153 3 14.5035 10.6818 9.17026
381 1 9.40841 16.1338 8.04234
397 3 10.8565 12.9344 8.47349
513 3 10.7007 11.6248 8.7947
107 2 13.537 15.7805 9.77399
108 2 14.2249 14.7154 8.66547
112 3 13.9398 15.2317 9.25461
115 3 13.8711 14.8149 8.06546
162 1 16.1521 9.5577 11.4322
169 3 12.2577 8.98336 12.2929
463 1 11.9572 15.8642 14.6699
223 1 9.96299 12.6033 15.0985
346 2 15.7344 8.86763 8.65892
411 3 8.98151 13.898 13.6812
414 3 10.0893 13.8256 8.89324
415 3 11.0242 12.5844 9.68822
531 3 10.9882 11.9531 13.8031
41 1 13.4123 15.4365 12.4075
43 1 15.3618 11.0804 14.3417
44 1 10.252 16.2383 12.6373
45 2 11.1255 13.3111 10.0888
46 2 10.9052 13.7873 8.59089
47 2 16.4811 10.2948 8.78132
48 2 15.0885 10.3529 8.95013
49 3 11.7099 14.9711 13.1405
52 3 15.5404 10.5746 8.33301
55 3 15.1072 9.5201 8.87761
56 3 13.4849 15.5777 10.3925
58 3 11.4252 13.3861 10.6727
59 3 11.0816 14.2069 8.08884
161 1 13.906 8.55089 13.1902
164 1 12.254 10.1193 9.35287
170 3 15.9123 8.48866 9.22144
171 3 15.4807 9.52964 13.1504
176 3 15.8937 10.3986 9.39787
178 3 10.7289 8.56457 9.42115
403 1 11.0352 13.29 12.6312
407 2 9.64511 13.4184 9.53968
408 2 10.615 12.2537 9.01321
410 3 11.2636 13.7964 9.37574
412 3 9.88108 12.5937 9.25425
420 3 10.2275 13.5098 10.0981
521 1 11.5739 10.2406 13.6035
536 3 8.99209 13.5269 9.61916
173 3 13.9413 9.99166 15.1178
262 1 3.86159 0.993354 22.7557
328 2 0.572811 6.45819 20.589
335 3 1.14543 6.42185 20.9849
446 2 4.67456 3.501 21.6945
459 3 5.52695 3.42465 21.6845
515 3 6.82387 3.34879 21.3665
508 2 6.20505 3.39177 21.1491
506 2 4.72216 5.38771 21.7751
519 3 5.12421 5.37271 22.3423
283 1 6.1974 0.249625 16.1902
242 1 3.39897 0.963422 15.7095
244 1 0.322983 6.71312 16.3029
247 2 1.93447 1.42002 19.5765
250 3 4.94429 1.57294 16.6701
251 3 0.758964 6.13903 19.7133
254 3 1.31965 1.71085 19.6643
256 3 -0.071898 6.89832 19.0814
257 3 4.3122 3.48728 22.2333
260 3 4.92001 2.14952 19.9505
303 1 2.64844 5.01345 20.5547
307 2 0.587781 6.37989 18.9536
309 3 0.0835751 8.23207 19.4412
314 3 0.697099 6.07557 18.4009
317 3 4.02267 5.43571 21.799
422 1 6.64648 0.918282 19.6321
424 1 6.03103 3.18264 16.468
425 2 4.993 2.69291 20.3318
429 3 4.57744 2.88556 21.0934
431 3 5.89572 4.02748 20.6279
438 3 4.92796 3.49337 20.0933
482 1 4.91828 6.1167 17.6136
489 3 5.02462 5.60987 21.0674
494 3 5.04481 4.84557 20.0303
64 1 7.26782 4.6134 18.7568
140 3 0.454399 7.27722 20.2238
433 3 5.81022 2.78544 20.6766
436 3 4.7052 4.20562 21.1932
487 2 5.18267 4.25337 20.3952
492 3 6.09709 4.7282 17.353
191 3 2.06905 0.760696 20.0996
196 3 2.44026 1.51517 19.1648
301 1 1.45766 8.33185 22.0191
305 2 0.36518 7.63583 19.5189
310 3 3.76225 7.32525 16.852
318 3 0.980343 7.32914 19.1027
364 1 4.19043 0.920689 18.1728
484 1 3.00545 7.65796 15.2711
432 3 8.11029 1.56033 16.6005
320 3 4.51087 6.09898 19.9583
485 2 5.10817 5.83444 20.1822
498 3 5.74267 5.98409 19.9642
423 1 11.5723 2.29965 22.3954
241 1 15.8439 3.09488 19.2582
80 3 15.5332 3.68388 15.5559
113 3 13.353 3.65584 16.3221
117 3 13.5294 2.41467 16.7369
477 3 10.3825 1.55608 17.7057
413 3 8.95912 1.17565 17.4702
245 2 14.9937 3.77206 15.9204
246 2 13.7846 3.01969 16.6501
249 3 14.792 3.32994 20.5116
253 3 16.0586 6.23174 20.7988
258 3 14.326 4.26531 15.7616
259 3 14.1045 3.46046 17.3237
435 3 8.23192 2.10492 17.8307
61 1 14.0128 4.96416 20.7438
62 1 12.3672 0.980693 17.6432
63 1 14.4198 2.22247 21.9559
65 2 8.60822 2.35518 18.6748
66 2 9.80141 1.85892 17.6779
69 3 9.88533 1.63842 21.6723
70 3 14.4671 3.11493 16.1482
71 3 13.2762 6.52507 20.1871
76 3 15.071 4.07716 16.7844
78 3 8.46373 3.05472 18.7418
79 3 9.4097 2.19526 17.0767
122 1 13.9556 6.50464 18.5258
123 1 14.4424 7.37519 21.6201
127 2 14.5043 4.19412 17.3909
128 2 13.5648 4.47103 16.1326
132 3 13.9174 4.63709 16.8892
134 3 14.6639 4.46386 17.9833
135 3 13.1291 4.8741 15.8218
421 1 8.4508 2.39446 22.2021
428 2 8.45782 1.67024 17.1712
430 3 9.41669 2.13435 18.3435
440 3 8.43023 1.87745 19.1782
4 1 9.77546 0.390483 20.1481
11 3 12.8764 1.27527 21.7151
130 3 14.6019 7.82982 16.43
22 1 0.684708 12.3132 22.4573
30 3 1.87871 13.9175 22.6598
275 3 2.50012 16.456 21.0961
268 2 2.20152 16.424 20.4867
206 2 0.809063 11.577 19.4946
208 2 1.61813 10.5659 20.4263
215 3 0.897798 10.9518 20.1031
219 3 0.175982 11.8399 19.3483
386 2 6.57266 15.889 22.2984